# vtk DataFile Version 3.0
# Dislocation lines written by OVITO Pro 3.7.2
ASCII
DATASET UNSTRUCTURED_GRID
POINTS 172 double
400.4514767024 123.8088020632 190.9033010155
401.0496062884 123.633767408 194.6236286971
401.8251402821 123.6747809495 200.1801226684
402.2928951556 123.7635250784 205.1053106924
402.5638505623 123.8018734881 209.7260945145
402.5444278599 123.7474018101 214.2979594374
402.3539468344 123.709575998 219.180048316
401.9810217813 123.7535451484 224.3713234455
401.6910700439 123.8156417513 229.2406636644
401.4261761406 123.8423198483 233.8680697228
400.7534144799 123.8567377309 238.6776208149
399.8664873858 123.8130043029 243.6161018591
398.5925436219 123.7627505164 248.665803755
397.1146053931 123.8271421336 253.7440444147
395.7950885301 123.8411171273 258.8836556375
394.0558951477 123.891115118 264.1930261392
391.9413742065 123.9753876168 269.5250382999
389.6549476917 123.9282532191 274.9557085079
386.6367428544 123.9922070992 280.628857121
383.1646123535 124.0312918375 286.3592876026
379.8043573227 123.9645180693 292.0288757886
375.9362754844 123.9248139542 297.9044834675
371.5705432042 123.9353143411 303.4721039206
367.1434220367 124.04293498 308.9412669017
362.4073270085 124.0424551419 314.8601830932
357.1408010613 123.9279728296 320.4722038499
351.5510047615 123.918793996 325.6699089457
345.9693700459 123.9778754991 330.4436014617
340.6480828649 124.0804893578 334.64597754
335.5843204591 124.2439734247 338.3004712448
330.3164679007 124.308074814 341.5679176718
324.8236643746 124.3250839679 344.7151917259
319.2357048106 124.2385560462 347.6779444645
313.5767724835 124.0741168544 350.4322918952
307.9015628053 124.0993104359 352.8768473874
302.1413489912 124.1367607757 355.0799382856
296.2202242526 124.0961633738 356.9886567981
290.1552116436 124.1829775133 358.5229912563
284.0748108718 124.3620657774 360.0127314038
277.9594468422 124.4822927695 361.3947056211
272.0881551591 124.3413656911 362.6433508819
266.2949490116 123.943166668 363.5665350909
260.2712719341 123.3275518279 363.7746352436
254.2487998759 122.649718119 363.7216193297
248.0956030444 122.9279038571 363.6259029384
241.9030860524 123.9881397311 363.1795305044
235.605958329 124.5402914141 362.6612311678
229.2557642557 124.5807083262 361.8460109527
223.1166524008 124.5934172208 360.4345641422
216.9885915578 124.5487971482 359.0701507806
211.3889210525 124.4816518513 357.5014101
206.542082762 124.4278525156 355.6245274117
201.8267099415 124.2923629424 353.9088569097
197.1512006175 124.2629989146 352.1576047193
192.6601573244 124.3433388133 350.1653075573
188.1963706018 124.4123048229 348.1145685188
183.7613168539 124.4486244664 346.037807575
179.6771756353 124.4639861768 343.7613939866
175.7907649156 124.515259179 341.4248655656
171.8028364066 124.584016419 338.8584973593
167.7090299394 124.6469243208 335.9621976944
163.7112628184 124.6689746697 333.0819723735
159.9604277111 124.6095678685 330.4407231685
156.4189626001 124.5475213272 327.7089210669
153.1214836588 124.6191007985 324.6380678482
150.0270499724 124.6398924455 321.5936268404
146.8702773281 124.5805321125 318.5463081594
143.5720465168 124.6182049457 315.1782454736
140.3535145335 124.6453899075 311.5977316031
137.4615231446 124.6408217501 308.0145506946
134.861039237 124.6318997063 304.5165977093
132.2698188356 124.6283411271 300.9616628012
129.5866875443 124.6322638847 297.205791326
126.9634589673 124.6363806417 293.3504722361
124.6602408906 124.6275321958 289.5434923949
122.1802693749 124.6584063085 285.5916608704
119.6740438898 124.6781656502 280.9919334374
117.8465997762 124.6206492288 276.3648067984
116.0473779207 124.6438659814 272.2435127877
113.9715216763 124.6744159945 268.0729525789
112.1087029196 124.6572404128 263.7508255468
110.6787301492 124.6990209894 259.3386928293
109.6248924854 124.721076744 254.7794573785
108.6518498364 124.6552281624 250.255322598
107.6851225609 124.6456701161 245.8883000731
106.7158877052 124.6631778271 241.6622091007
105.7447331921 124.6287444784 237.2658740197
105.147515438 124.6333554669 232.6877586018
104.8341777243 124.6240640755 227.9979765483
104.4249021109 124.5851352346 223.0551170968
103.8929961583 124.5893520595 218.3047127751
103.6145187596 124.6157958113 213.7761184807
103.8942047012 124.6700513483 209.070422195
104.3108781033 124.6894091485 204.1711947559
104.5923116918 124.6260488631 199.3373665222
104.9958419315 124.659393487 194.393312985
105.7320329968 124.6825251848 189.1444564457
106.7260312616 124.5822522671 183.9009431885
108.0371733561 124.5096677086 178.8533908416
109.4711857854 124.5213404787 173.8563938865
110.8094383965 124.5587510308 168.6886493528
112.8386640779 124.5008544557 163.1239285028
115.5450795383 124.4612067816 157.1760887718
117.9163411339 124.5004942087 151.5196816431
120.2268172367 124.4586005131 146.0848520119
123.4732290417 124.2750515015 140.2624942536
127.8648520423 124.1617560991 133.8561713541
132.6161395939 124.1898710564 127.1773935727
137.1275870303 124.2215565127 120.6861021888
141.5715527373 124.2574500071 115.0345782993
146.2589122585 124.3493188599 110.1360018031
151.4150853629 124.3746872614 105.156910437
156.7024676825 124.2911131328 100.6158116751
161.7531010902 124.2687776903 96.5642054994
166.7748485234 124.3353572673 92.5245530447
172.0665773893 124.4526609569 88.7797110088
177.7565869571 124.4210215239 85.4020751566
183.5076831694 124.3625508245 82.1330573934
189.0308281065 124.3732841141 79.1075114756
194.6811416544 124.2396450611 76.6535266675
200.560434553 124.1366318952 74.5848494597
206.429287841 124.1416014242 72.5353989576
212.2895690763 124.281280167 70.4974503959
218.276680363 124.2842894658 68.8025090063
224.4019637967 124.1607976825 67.4655573631
230.537283967 124.1915674443 66.231967116
236.8214522862 124.0072154808 65.3861806938
243.4106474561 123.8286940972 65.2094597447
250.068854765 123.8311861773 65.2599108803
256.7626956237 123.7842992886 65.2488440865
263.2868050291 123.8129290895 65.3675699405
269.2589000952 124.0877680455 65.7768158229
275.1815718765 124.2799800444 66.4125421361
281.170783452 124.2402012138 67.366763218
286.702000014 124.2329482437 68.714410469
292.2553253089 124.0752853854 70.1497720819
297.8685284675 124.0097209874 71.6360503319
302.7811500207 124.0910356385 73.3980224204
307.3870986642 123.998170751 75.3073583773
312.1586037606 123.8765002421 77.1761723474
316.7453877254 123.9399361 79.0354525447
320.9244204943 124.1021870705 81.0296862687
324.9037319504 124.0169694634 83.3004746288
328.7805926156 123.8084644961 85.7503172327
332.57717736 123.8070468701 88.2721885629
336.6407390237 123.8618591752 90.8161810447
341.0032337863 123.7840837874 93.5067095474
345.1762043383 123.7536799931 96.6416728194
348.9253916522 123.7906262934 100.0640418774
352.5261834135 123.7797675712 103.235835028
355.8301018285 123.7711072169 106.1931280131
358.9318640546 123.7410751904 109.3899437395
362.5422115476 123.7353447009 113.0618680164
366.3856379339 123.7414134818 117.1917137839
369.810441811 123.6981475955 121.1821996417
372.7525799248 123.7431036534 124.9619831101
375.4513226715 123.7520353725 128.8597147733
378.1643163051 123.6573145585 132.7108040212
380.6506451545 123.6888928791 136.7235685714
382.7267282282 123.7359456578 140.7715596803
385.0272539563 123.7234866263 144.5869780641
387.4762643482 123.725580948 148.7004991161
389.3468525269 123.7051608278 153.2110614608
390.8684319917 123.6975725198 157.6597013747
392.4191478108 123.7059948968 162.0019099386
393.9848608078 123.6929029319 166.3604861227
395.5501627132 123.6785935626 170.7373851048
397.1487618949 123.6728426845 175.1039420523
398.5939030106 123.6224816442 179.6597350614
399.6438764905 123.7237267334 184.0557234309
400.144558907 123.9005649725 187.0864486873
400.4514766613 123.8088019939 190.9033009994

CELLS 1 173
172 0 1 2 3 4 5 6 7 8 9 10 11 12 13 14 15 16 17 18 19 20 21 22 23 24 25 26 27 28 29 30 31 32 33 34 35 36 37 38 39 40 41 42 43 44 45 46 47 48 49 50 51 52 53 54 55 56 57 58 59 60 61 62 63 64 65 66 67 68 69 70 71 72 73 74 75 76 77 78 79 80 81 82 83 84 85 86 87 88 89 90 91 92 93 94 95 96 97 98 99 100 101 102 103 104 105 106 107 108 109 110 111 112 113 114 115 116 117 118 119 120 121 122 123 124 125 126 127 128 129 130 131 132 133 134 135 136 137 138 139 140 141 142 143 144 145 146 147 148 149 150 151 152 153 154 155 156 157 158 159 160 161 162 163 164 165 166 167 168 169 170 171

CELL_TYPES 1
4

CELL_DATA 1
SCALARS dislocation_index int
LOOKUP_TABLE default
0

VECTORS burgers_vector_local double
0.5 -0.5 -0.5

VECTORS burgers_vector_world double
2.4727669675 9.8159342153e-07 -1.665772574e-05
