# vtk DataFile Version 3.0
# Dislocation lines written by OVITO Pro 3.7.2
ASCII
DATASET UNSTRUCTURED_GRID
POINTS 170 double
372.2875477186 123.358448076 306.6473476678
374.4353847757 122.8887099358 303.7501218335
377.7140775432 122.7753493618 299.1694401378
380.4991722953 123.1981282002 294.8827895176
383.4621977857 123.7008686196 290.2156706028
386.4842448732 123.2913110913 285.2524397126
388.964605819 122.8625816859 280.5542982418
390.9349144746 123.0566474924 276.2994440372
392.794291666 122.868786725 272.1733996364
394.5206787156 122.9096255255 267.8501140258
396.1030476815 123.2691973509 263.1757812558
397.8270833199 123.3993788319 258.1225762169
399.4693251149 123.472193523 252.8253854187
400.6348004713 123.4482478025 247.7674654651
401.492294978 123.5228355364 243.272606919
402.1158327758 123.6503733556 239.1971343251
402.779731335 123.5742505419 234.9513936354
403.511980792 123.4182615101 229.9903272895
403.8815931931 123.5074835544 224.8829791572
404.1978618393 123.6257017623 220.0819500958
404.4246474853 123.4512351961 215.145468732
404.0794901457 123.4015668799 209.9385115008
403.6472927748 123.4384226952 204.6375295979
403.3360882751 123.429996154 199.519925997
402.554082785 123.5731216962 194.6944802846
401.7355800315 123.4745959525 189.8437467223
401.0684588097 123.475100976 184.8884881267
399.7930626386 123.7418107703 180.1542014015
398.4841199127 123.5767776155 175.0768602116
397.5737314862 123.3971550402 169.2545857023
396.4317056347 123.7122741998 163.6873213199
394.3208000281 123.862517893 158.9809593931
391.2743481816 123.6563646928 154.6322233116
388.9602451864 123.6542996609 149.8626299011
387.3284743302 123.5886162189 144.9802038282
384.8620184449 123.4565765023 140.7523235965
382.1279244508 123.6119791067 136.735810429
379.6625949911 123.5701978493 132.625829945
377.0057713875 123.3937808857 128.7396003174
374.2974893304 123.447807453 124.7347681733
371.3578141676 123.5560679681 120.5221326281
367.7953902434 123.586840447 116.3598343976
363.8280839064 123.603996018 112.4342439075
360.1214354798 123.5956705781 108.8056573098
356.838822346 123.585716235 105.4582912746
353.4507670726 123.6452540415 102.2571065592
349.9257688826 123.7177584202 98.8965929901
346.3925345208 123.7741348653 95.7277232826
342.6730833297 123.7081282738 93.0021127865
338.8387746725 123.6424265222 90.3754762223
335.1209945261 123.691917206 87.6504085598
331.0638043178 123.7560345177 85.2639779043
326.7562198807 123.7808020623 83.1235645362
322.6453558067 123.6954199601 80.8107017012
318.1098645704 123.6051425664 78.5715724644
312.8646255513 123.6466485809 76.227271532
307.0222763261 123.6823716957 73.9726490514
301.459043313 123.6390838859 71.9996690208
296.5483662137 123.6931244777 70.2669934786
291.3966172987 123.7699961687 68.9981722551
286.0827444996 123.7811715924 67.6288688111
280.5933278472 123.8144676413 66.160854609
274.5696578869 123.7720164283 65.3809300387
268.1422346466 123.7819183115 65.1615328403
261.679876107 124.0859578087 64.7196473288
255.2138799434 124.4593498013 64.1284836248
249.0013963963 124.3761442128 64.3175855827
243.1403804862 123.973340487 65.0756700102
236.7588514179 123.8722949554 65.2227945785
230.2463141505 124.0259901193 65.6491143251
224.1579910465 124.0850672438 67.056579038
218.0044921429 124.0136673594 68.3977366616
211.9348245871 124.0330220601 70.0000195434
206.1329965627 124.1876602667 72.0796236545
200.3001434679 124.3433441276 74.1126691422
194.5016195077 124.3933388024 76.3833362208
188.8606090856 124.3056200595 79.0483636955
183.1800745474 124.3271568005 81.7186273607
177.6361304762 124.4519057129 84.7310344296
172.3736036031 124.4494665815 88.3451599373
167.0826364954 124.5123695257 91.9620712338
161.7419078811 124.7272373842 95.6078956601
156.5756765283 124.7081085437 99.6930121183
151.6286250006 124.5477379372 104.2391034325
146.7612680869 124.5391562527 109.0595260649
141.9444835464 124.6702582283 114.13155755
137.3515263217 124.9569490402 119.7370235531
132.9691612075 125.1175586768 125.8643020646
128.5553218409 125.1121052531 132.1325405351
124.1361332358 125.0365378322 138.3741249729
120.603594309 124.9787752286 144.3903766415
118.3155953997 125.0218053662 150.0325433092
116.1288996748 124.9604550272 155.6741129232
113.8079024169 124.9037719314 161.393535627
111.8695394763 124.951635432 166.9485180879
110.0717094318 125.0251425442 172.4851452801
108.5514292911 124.9749988979 177.9902686405
107.5817785281 124.913917214 183.3269232532
106.6612691793 125.011558651 188.6737341112
105.5488338652 125.0721798041 194.0432160113
105.0215285095 125.0404051425 199.3894583342
104.8718870584 125.0173250999 204.8587735745
104.3269890317 125.057479708 210.2931288309
104.162231347 125.0322905823 215.4833673236
104.4834511832 124.9149983734 220.3381814806
104.8597187548 124.8615104177 224.908752755
105.3672631828 124.8686902388 229.8372648102
106.0168437615 124.8295553802 235.0817779593
107.1260674304 124.9281535052 240.1593404527
108.0396206119 125.0034539416 245.5791787208
108.6182061478 124.9123492303 251.078659549
109.9578048416 125.0155454883 255.9237198599
111.6645822593 125.0707181852 260.5511014282
113.2898360935 124.896648571 265.2321271937
114.9895844485 124.8302302663 269.8686567964
116.6925581357 124.939613486 274.4695186254
119.1657691923 125.02597587 279.1501540326
122.1112615063 125.0419248793 284.1560964969
124.5221069097 125.024209958 289.0277330301
126.9901677692 125.0151869424 293.4577417772
130.0420257788 124.9287373854 297.7948223759
133.2323399093 124.7422932989 302.0836030835
136.2879133661 124.7566436441 306.3427505427
139.7146387015 124.8544199625 310.5570274147
143.4800542687 124.8371551472 314.679738491
147.2091847483 124.8176885821 318.8290257672
151.2415685188 124.83489635 322.872492312
155.3599857425 124.8837549039 326.6595624653
159.5985882552 124.8313947367 330.3375844079
164.5867340907 124.7467631716 334.0557253191
169.956035114 124.748170505 337.8549786063
175.2544463007 124.6484363925 341.4714391529
180.2612324617 124.5703344307 344.4564874095
185.0227499923 124.6188843257 346.944216007
189.8426332046 124.6246206102 349.3971501985
194.850353595 124.5985427604 351.8764594132
200.4827878385 124.5292214735 354.0795367071
206.2368492653 124.5513212393 355.9802636669
211.667152413 124.6642132407 357.8996458148
217.5597604152 124.6968031665 359.4266047212
223.8201677818 124.5533234678 360.5718103225
230.0094950616 124.4416803693 361.7794983644
236.2705679598 124.3760811319 362.7424385901
242.5923240078 124.0291195222 363.4501162211
249.0805351096 123.8093009827 363.7441162275
255.7049084722 123.826837698 363.6979599728
262.3248903632 123.7859314583 363.757569621
268.8644934092 123.8350460657 363.5862269604
275.1680931754 123.8730833578 362.6575246423
281.3094818821 123.8815378485 361.5242258726
287.0410915507 123.9488651402 360.5570614189
292.1147807178 123.8781864024 359.1212867434
297.3860806106 123.8568026147 357.4947916873
303.110672156 123.8490953697 355.9809155726
308.4167461488 123.7326344389 354.1396860258
313.4735154487 123.7777894325 352.0428176104
318.3154280537 123.704898214 349.9461501533
322.8993220677 123.4456643013 347.5185116165
327.9858028848 123.4040823697 344.5922393372
332.8862750147 123.5151660733 341.8182472647
337.079309244 123.6499927073 339.2795660427
341.3235701806 123.7224488237 336.2613003341
345.6592291684 123.6428770093 332.8394545378
349.8283289581 123.5361140587 329.4533426365
353.9798991268 123.6061908053 326.0498020686
357.9960101894 123.6017327636 322.4891546893
361.6319118479 123.3948586489 318.7715766766
365.1086685589 123.4897909325 315.109551609
368.1462634305 123.6716211534 311.7641006426
372.2875477064 123.3584482065 306.6473476226

CELLS 1 171
170 0 1 2 3 4 5 6 7 8 9 10 11 12 13 14 15 16 17 18 19 20 21 22 23 24 25 26 27 28 29 30 31 32 33 34 35 36 37 38 39 40 41 42 43 44 45 46 47 48 49 50 51 52 53 54 55 56 57 58 59 60 61 62 63 64 65 66 67 68 69 70 71 72 73 74 75 76 77 78 79 80 81 82 83 84 85 86 87 88 89 90 91 92 93 94 95 96 97 98 99 100 101 102 103 104 105 106 107 108 109 110 111 112 113 114 115 116 117 118 119 120 121 122 123 124 125 126 127 128 129 130 131 132 133 134 135 136 137 138 139 140 141 142 143 144 145 146 147 148 149 150 151 152 153 154 155 156 157 158 159 160 161 162 163 164 165 166 167 168 169

CELL_TYPES 1
4

CELL_DATA 1
SCALARS dislocation_index int
LOOKUP_TABLE default
0

VECTORS burgers_vector_local double
-0.5 0.5 0.5

VECTORS burgers_vector_world double
-2.4727849829 -1.9396985228e-06 7.5861130333e-07
